ITEM: TIMESTEP
0
ITEM: NUMBER OF ATOMS
420
ITEM: BOX BOUNDS pp ss pp
0.0000000000000000e+00 2.2653923264628304e+01
-1.9618873042551413e-03 1.9620834929855668e+01
-2.8317404080785380e-01 2.8317404080785380e-01
ITEM: ATOMS id type xs ys zs
1 2 0 9.998e-05 0.5
2 2 0.025 0.05009 0.5
3 2 0.05 9.998e-05 0.5
4 2 0.075 0.05009 0.5
5 2 0.1 9.998e-05 0.5
6 2 0.125 0.05009 0.5
7 2 0.15 9.998e-05 0.5
8 2 0.175 0.05009 0.5
9 2 0.2 9.998e-05 0.5
10 2 0.225 0.05009 0.5
11 2 0.25 9.998e-05 0.5
12 2 0.275 0.05009 0.5
13 2 0.3 9.998e-05 0.5
14 2 0.325 0.05009 0.5
15 2 0.35 9.998e-05 0.5
16 2 0.375 0.05009 0.5
17 2 0.4 9.998e-05 0.5
18 2 0.425 0.05009 0.5
19 2 0.45 9.998e-05 0.5
20 2 0.475 0.05009 0.5
21 2 0.5 9.998e-05 0.5
22 2 0.525 0.05009 0.5
23 2 0.55 9.998e-05 0.5
24 2 0.575 0.05009 0.5
25 2 0.6 9.998e-05 0.5
26 2 0.625 0.05009 0.5
27 2 0.65 9.998e-05 0.5
28 2 0.675 0.05009 0.5
29 2 0.7 9.998e-05 0.5
30 2 0.725 0.05009 0.5
31 2 0.75 9.998e-05 0.5
32 2 0.775 0.05009 0.5
33 2 0.8 9.998e-05 0.5
34 2 0.825 0.05009 0.5
35 2 0.85 9.998e-05 0.5
36 2 0.875 0.05009 0.5
37 2 0.9 9.998e-05 0.5
38 2 0.925 0.05009 0.5
39 2 0.95 9.998e-05 0.5
40 2 0.975 0.05009 0.5
41 2 0 0.10008 0.5
43 2 0.05 0.10008 0.5
45 2 0.1 0.10008 0.5
47 2 0.15 0.10008 0.5
49 2 0.2 0.10008 0.5
51 2 0.25 0.10008 0.5
53 2 0.3 0.10008 0.5
55 2 0.35 0.10008 0.5
57 2 0.4 0.10008 0.5
59 2 0.45 0.10008 0.5
61 2 0.5 0.10008 0.5
63 2 0.55 0.10008 0.5
65 2 0.6 0.10008 0.5
67 2 0.65 0.10008 0.5
69 2 0.7 0.10008 0.5
71 2 0.75 0.10008 0.5
73 2 0.8 0.10008 0.5
75 2 0.85 0.10008 0.5
77 2 0.9 0.10008 0.5
79 2 0.95 0.10008 0.5
42 1 0.025 0.15007 0.5
81 1 0 0.20006 0.5
83 1 0.05 0.20006 0.5
44 1 0.075 0.15007 0.5
85 1 0.1 0.20006 0.5
46 1 0.125 0.15007 0.5
48 1 0.175 0.15007 0.5
87 1 0.15 0.20006 0.5
50 1 0.225 0.15007 0.5
89 1 0.2 0.20006 0.5
52 1 0.275 0.15007 0.5
91 1 0.25 0.20006 0.5
93 1 0.3 0.20006 0.5
54 1 0.325 0.15007 0.5
95 1 0.35 0.20006 0.5
56 1 0.375 0.15007 0.5
58 1 0.425 0.15007 0.5
97 1 0.4 0.20006 0.5
60 1 0.475 0.15007 0.5
99 1 0.45 0.20006 0.5
62 1 0.525 0.15007 0.5
101 1 0.5 0.20006 0.5
103 1 0.55 0.20006 0.5
64 1 0.575 0.15007 0.5
105 1 0.6 0.20006 0.5
66 1 0.625 0.15007 0.5
68 1 0.675 0.15007 0.5
107 1 0.65 0.20006 0.5
70 1 0.725 0.15007 0.5
109 1 0.7 0.20006 0.5
72 1 0.775 0.15007 0.5
111 1 0.75 0.20006 0.5
113 1 0.8 0.20006 0.5
74 1 0.825 0.15007 0.5
115 1 0.85 0.20006 0.5
76 1 0.875 0.15007 0.5
78 1 0.925 0.15007 0.5
117 1 0.9 0.20006 0.5
80 1 0.975 0.15007 0.5
119 1 0.95 0.20006 0.5
82 1 0.025 0.25005 0.5
84 1 0.075 0.25005 0.5
86 1 0.125 0.25005 0.5
88 1 0.175 0.25005 0.5
90 1 0.225 0.25005 0.5
92 1 0.275 0.25005 0.5
94 1 0.325 0.25005 0.5
96 1 0.375 0.25005 0.5
98 1 0.425 0.25005 0.5
100 1 0.475 0.25005 0.5
102 1 0.525 0.25005 0.5
104 1 0.575 0.25005 0.5
106 1 0.625 0.25005 0.5
108 1 0.675 0.25005 0.5
110 1 0.725 0.25005 0.5
112 1 0.775 0.25005 0.5
114 1 0.825 0.25005 0.5
116 1 0.875 0.25005 0.5
118 1 0.925 0.25005 0.5
120 1 0.975 0.25005 0.5
121 1 0 0.30004 0.5
122 1 0.025 0.35003 0.5
123 1 0.05 0.30004 0.5
124 1 0.075 0.35003 0.5
125 1 0.1 0.30004 0.5
126 1 0.125 0.35003 0.5
127 1 0.15 0.30004 0.5
128 1 0.175 0.35003 0.5
129 1 0.2 0.30004 0.5
130 1 0.225 0.35003 0.5
131 1 0.25 0.30004 0.5
132 1 0.275 0.35003 0.5
133 1 0.3 0.30004 0.5
134 1 0.325 0.35003 0.5
135 1 0.35 0.30004 0.5
136 1 0.375 0.35003 0.5
137 1 0.4 0.30004 0.5
138 1 0.425 0.35003 0.5
139 1 0.45 0.30004 0.5
140 1 0.475 0.35003 0.5
141 1 0.5 0.30004 0.5
142 1 0.525 0.35003 0.5
143 1 0.55 0.30004 0.5
144 1 0.575 0.35003 0.5
145 1 0.6 0.30004 0.5
146 1 0.625 0.35003 0.5
147 1 0.65 0.30004 0.5
148 1 0.675 0.35003 0.5
149 1 0.7 0.30004 0.5
150 1 0.725 0.35003 0.5
151 1 0.75 0.30004 0.5
152 1 0.775 0.35003 0.5
153 1 0.8 0.30004 0.5
154 1 0.825 0.35003 0.5
155 1 0.85 0.30004 0.5
156 1 0.875 0.35003 0.5
157 1 0.9 0.30004 0.5
158 1 0.925 0.35003 0.5
159 1 0.95 0.30004 0.5
160 1 0.975 0.35003 0.5
161 1 0 0.40002 0.5
163 1 0.05 0.40002 0.5
165 1 0.1 0.40002 0.5
167 1 0.15 0.40002 0.5
169 1 0.2 0.40002 0.5
171 1 0.25 0.40002 0.5
173 1 0.3 0.40002 0.5
175 1 0.35 0.40002 0.5
177 1 0.4 0.40002 0.5
179 1 0.45 0.40002 0.5
181 1 0.5 0.40002 0.5
183 1 0.55 0.40002 0.5
185 1 0.6 0.40002 0.5
187 1 0.65 0.40002 0.5
189 1 0.7 0.40002 0.5
191 1 0.75 0.40002 0.5
193 1 0.8 0.40002 0.5
195 1 0.85 0.40002 0.5
197 1 0.9 0.40002 0.5
199 1 0.95 0.40002 0.5
162 1 0.025 0.45001 0.5
164 1 0.075 0.45001 0.5
166 1 0.125 0.45001 0.5
168 1 0.175 0.45001 0.5
170 1 0.225 0.45001 0.5
172 1 0.275 0.45001 0.5
174 1 0.325 0.45001 0.5
176 1 0.375 0.45001 0.5
178 1 0.425 0.45001 0.5
180 1 0.475 0.45001 0.5
182 1 0.525 0.45001 0.5
184 1 0.575 0.45001 0.5
186 1 0.625 0.45001 0.5
188 1 0.675 0.45001 0.5
190 1 0.725 0.45001 0.5
192 1 0.775 0.45001 0.5
194 1 0.825 0.45001 0.5
196 1 0.875 0.45001 0.5
198 1 0.925 0.45001 0.5
200 1 0.975 0.45001 0.5
201 1 0 0.5 0.5
202 1 0.025 0.54999 0.5
203 1 0.05 0.5 0.5
204 1 0.075 0.54999 0.5
205 1 0.1 0.5 0.5
206 1 0.125 0.54999 0.5
207 1 0.15 0.5 0.5
208 1 0.175 0.54999 0.5
209 1 0.2 0.5 0.5
210 1 0.225 0.54999 0.5
211 1 0.25 0.5 0.5
212 1 0.275 0.54999 0.5
213 1 0.3 0.5 0.5
214 1 0.325 0.54999 0.5
215 1 0.35 0.5 0.5
216 1 0.375 0.54999 0.5
217 1 0.4 0.5 0.5
218 1 0.425 0.54999 0.5
219 1 0.45 0.5 0.5
220 1 0.475 0.54999 0.5
221 1 0.5 0.5 0.5
222 1 0.525 0.54999 0.5
223 1 0.55 0.5 0.5
224 1 0.575 0.54999 0.5
225 1 0.6 0.5 0.5
226 1 0.625 0.54999 0.5
227 1 0.65 0.5 0.5
228 1 0.675 0.54999 0.5
229 1 0.7 0.5 0.5
230 1 0.725 0.54999 0.5
231 1 0.75 0.5 0.5
232 1 0.775 0.54999 0.5
233 1 0.8 0.5 0.5
234 1 0.825 0.54999 0.5
235 1 0.85 0.5 0.5
236 1 0.875 0.54999 0.5
237 1 0.9 0.5 0.5
238 1 0.925 0.54999 0.5
239 1 0.95 0.5 0.5
240 1 0.975 0.54999 0.5
241 1 0 0.59998 0.5
243 1 0.05 0.59998 0.5
245 1 0.1 0.59998 0.5
247 1 0.15 0.59998 0.5
249 1 0.2 0.59998 0.5
251 1 0.25 0.59998 0.5
253 1 0.3 0.59998 0.5
255 1 0.35 0.59998 0.5
257 1 0.4 0.59998 0.5
259 1 0.45 0.59998 0.5
261 1 0.5 0.59998 0.5
263 1 0.55 0.59998 0.5
265 1 0.6 0.59998 0.5
267 1 0.65 0.59998 0.5
269 1 0.7 0.59998 0.5
271 1 0.75 0.59998 0.5
273 1 0.8 0.59998 0.5
275 1 0.85 0.59998 0.5
277 1 0.9 0.59998 0.5
279 1 0.95 0.59998 0.5
242 1 0.025 0.64997 0.5
281 1 0 0.69996 0.5
283 1 0.05 0.69996 0.5
244 1 0.075 0.64997 0.5
285 1 0.1 0.69996 0.5
246 1 0.125 0.64997 0.5
248 1 0.175 0.64997 0.5
287 1 0.15 0.69996 0.5
250 1 0.225 0.64997 0.5
289 1 0.2 0.69996 0.5
252 1 0.275 0.64997 0.5
291 1 0.25 0.69996 0.5
293 1 0.3 0.69996 0.5
254 1 0.325 0.64997 0.5
295 1 0.35 0.69996 0.5
256 1 0.375 0.64997 0.5
258 1 0.425 0.64997 0.5
297 1 0.4 0.69996 0.5
260 1 0.475 0.64997 0.5
299 1 0.45 0.69996 0.5
262 1 0.525 0.64997 0.5
301 1 0.5 0.69996 0.5
303 1 0.55 0.69996 0.5
264 1 0.575 0.64997 0.5
305 1 0.6 0.69996 0.5
266 1 0.625 0.64997 0.5
268 1 0.675 0.64997 0.5
307 1 0.65 0.69996 0.5
270 1 0.725 0.64997 0.5
309 1 0.7 0.69996 0.5
272 1 0.775 0.64997 0.5
311 1 0.75 0.69996 0.5
313 1 0.8 0.69996 0.5
274 1 0.825 0.64997 0.5
315 1 0.85 0.69996 0.5
276 1 0.875 0.64997 0.5
278 1 0.925 0.64997 0.5
317 1 0.9 0.69996 0.5
280 1 0.975 0.64997 0.5
319 1 0.95 0.69996 0.5
282 1 0.025 0.74995 0.5
284 1 0.075 0.74995 0.5
286 1 0.125 0.74995 0.5
288 1 0.175 0.74995 0.5
290 1 0.225 0.74995 0.5
292 1 0.275 0.74995 0.5
294 1 0.325 0.74995 0.5
296 1 0.375 0.74995 0.5
298 1 0.425 0.74995 0.5
300 1 0.475 0.74995 0.5
302 1 0.525 0.74995 0.5
304 1 0.575 0.74995 0.5
306 1 0.625 0.74995 0.5
308 1 0.675 0.74995 0.5
310 1 0.725 0.74995 0.5
312 1 0.775 0.74995 0.5
314 1 0.825 0.74995 0.5
316 1 0.875 0.74995 0.5
318 1 0.925 0.74995 0.5
320 1 0.975 0.74995 0.5
321 1 0 0.79994 0.5
322 1 0.025 0.84993 0.5
323 1 0.05 0.79994 0.5
324 1 0.075 0.84993 0.5
325 1 0.1 0.79994 0.5
326 1 0.125 0.84993 0.5
327 1 0.15 0.79994 0.5
328 1 0.175 0.84993 0.5
329 1 0.2 0.79994 0.5
330 1 0.225 0.84993 0.5
331 1 0.25 0.79994 0.5
332 1 0.275 0.84993 0.5
333 1 0.3 0.79994 0.5
334 1 0.325 0.84993 0.5
335 1 0.35 0.79994 0.5
336 1 0.375 0.84993 0.5
337 1 0.4 0.79994 0.5
338 1 0.425 0.84993 0.5
339 1 0.45 0.79994 0.5
340 1 0.475 0.84993 0.5
341 1 0.5 0.79994 0.5
342 1 0.525 0.84993 0.5
343 1 0.55 0.79994 0.5
344 1 0.575 0.84993 0.5
345 1 0.6 0.79994 0.5
346 1 0.625 0.84993 0.5
347 1 0.65 0.79994 0.5
348 1 0.675 0.84993 0.5
349 1 0.7 0.79994 0.5
350 1 0.725 0.84993 0.5
351 1 0.75 0.79994 0.5
352 1 0.775 0.84993 0.5
353 1 0.8 0.79994 0.5
354 1 0.825 0.84993 0.5
355 1 0.85 0.79994 0.5
356 1 0.875 0.84993 0.5
357 1 0.9 0.79994 0.5
358 1 0.925 0.84993 0.5
359 1 0.95 0.79994 0.5
360 1 0.975 0.84993 0.5
361 1 0 0.89992 0.5
363 1 0.05 0.89992 0.5
365 1 0.1 0.89992 0.5
367 1 0.15 0.89992 0.5
369 1 0.2 0.89992 0.5
371 1 0.25 0.89992 0.5
373 1 0.3 0.89992 0.5
375 1 0.35 0.89992 0.5
377 1 0.4 0.89992 0.5
379 1 0.45 0.89992 0.5
381 1 0.5 0.89992 0.5
383 1 0.55 0.89992 0.5
385 1 0.6 0.89992 0.5
387 1 0.65 0.89992 0.5
389 1 0.7 0.89992 0.5
391 1 0.75 0.89992 0.5
393 1 0.8 0.89992 0.5
395 1 0.85 0.89992 0.5
397 1 0.9 0.89992 0.5
399 1 0.95 0.89992 0.5
362 1 0.025 0.94991 0.5
401 1 0 0.9999 0.5
402 1 0.05 0.9999 0.5
364 1 0.075 0.94991 0.5
403 1 0.1 0.9999 0.5
366 1 0.125 0.94991 0.5
368 1 0.175 0.94991 0.5
404 1 0.15 0.9999 0.5
370 1 0.225 0.94991 0.5
405 1 0.2 0.9999 0.5
372 1 0.275 0.94991 0.5
406 1 0.25 0.9999 0.5
407 1 0.3 0.9999 0.5
374 1 0.325 0.94991 0.5
408 1 0.35 0.9999 0.5
376 1 0.375 0.94991 0.5
378 1 0.425 0.94991 0.5
409 1 0.4 0.9999 0.5
380 1 0.475 0.94991 0.5
410 1 0.45 0.9999 0.5
382 1 0.525 0.94991 0.5
411 1 0.5 0.9999 0.5
412 1 0.55 0.9999 0.5
384 1 0.575 0.94991 0.5
413 1 0.6 0.9999 0.5
386 1 0.625 0.94991 0.5
388 1 0.675 0.94991 0.5
414 1 0.65 0.9999 0.5
390 1 0.725 0.94991 0.5
415 1 0.7 0.9999 0.5
392 1 0.775 0.94991 0.5
416 1 0.75 0.9999 0.5
417 1 0.8 0.9999 0.5
394 1 0.825 0.94991 0.5
418 1 0.85 0.9999 0.5
396 1 0.875 0.94991 0.5
398 1 0.925 0.94991 0.5
419 1 0.9 0.9999 0.5
400 1 0.975 0.94991 0.5
420 1 0.95 0.9999 0.5
ITEM: TIMESTEP
250
ITEM: NUMBER OF ATOMS
420
ITEM: BOX BOUNDS pp ss pp
0.0000000000000000e+00 2.2653923264628304e+01
-1.9618873042551413e-03 1.9704846518411824e+01
-2.8317404080785380e-01 2.8317404080785380e-01
ITEM: ATOMS id type xs ys zs
1 2 0 9.95538e-05 0.5
2 2 0.025 0.0498764 0.5
3 2 0.05 9.95538e-05 0.5
4 2 0.075 0.0498764 0.5
5 2 0.1 9.95538e-05 0.5
6 2 0.125 0.0498764 0.5
7 2 0.15 9.95538e-05 0.5
8 2 0.175 0.0498764 0.5
9 2 0.2 9.95538e-05 0.5
10 2 0.225 0.0498764 0.5
11 2 0.25 9.95538e-05 0.5
12 2 0.275 0.0498764 0.5
13 2 0.3 9.95538e-05 0.5
14 2 0.325 0.0498764 0.5
15 2 0.35 9.95538e-05 0.5
16 2 0.375 0.0498764 0.5
17 2 0.4 9.95538e-05 0.5
18 2 0.425 0.0498764 0.5
19 2 0.45 9.95538e-05 0.5
20 2 0.475 0.0498764 0.5
21 2 0.5 9.95538e-05 0.5
22 2 0.525 0.0498764 0.5
23 2 0.55 9.95538e-05 0.5
24 2 0.575 0.0498764 0.5
25 2 0.6 9.95538e-05 0.5
26 2 0.625 0.0498764 0.5
27 2 0.65 9.95538e-05 0.5
28 2 0.675 0.0498764 0.5
29 2 0.7 9.95538e-05 0.5
30 2 0.725 0.0498764 0.5
31 2 0.75 9.95538e-05 0.5
32 2 0.775 0.0498764 0.5
33 2 0.8 9.95538e-05 0.5
34 2 0.825 0.0498764 0.5
35 2 0.85 9.95538e-05 0.5
36 2 0.875 0.0498764 0.5
37 2 0.9 9.95538e-05 0.5
38 2 0.925 0.0498764 0.5
39 2 0.95 9.95538e-05 0.5
40 2 0.975 0.0498764 0.5
41 2 0 0.0996533 0.5
43 2 0.05 0.0996533 0.5
45 2 0.1 0.0996533 0.5
47 2 0.15 0.0996533 0.5
49 2 0.2 0.0996533 0.5
51 2 0.25 0.0996533 0.5
53 2 0.3 0.0996533 0.5
55 2 0.35 0.0996533 0.5
57 2 0.4 0.0996533 0.5
59 2 0.45 0.0996533 0.5
61 2 0.5 0.0996533 0.5
63 2 0.55 0.0996533 0.5
65 2 0.6 0.0996533 0.5
67 2 0.65 0.0996533 0.5
69 2 0.7 0.0996533 0.5
71 2 0.75 0.0996533 0.5
73 2 0.8 0.0996533 0.5
75 2 0.85 0.0996533 0.5
77 2 0.9 0.0996533 0.5
79 2 0.95 0.0996533 0.5
42 1 0.0246742 0.148969 0.5
81 1 0.997644 0.200434 0.5
83 1 0.0452219 0.199478 0.5
44 1 0.0729363 0.147385 0.5
85 1 0.0985276 0.201941 0.5
46 1 0.123612 0.152807 0.5
48 1 0.173225 0.148793 0.5
87 1 0.148536 0.200268 0.5
50 1 0.223919 0.149161 0.5
89 1 0.19906 0.200749 0.5
52 1 0.272031 0.149443 0.5
91 1 0.24793 0.199226 0.5
93 1 0.298802 0.199313 0.5
54 1 0.321835 0.148918 0.5
95 1 0.347467 0.195683 0.5
56 1 0.374815 0.148495 0.5
58 1 0.423711 0.14726 0.5
97 1 0.401618 0.198026 0.5
60 1 0.473915 0.147449 0.5
99 1 0.450173 0.196223 0.5
62 1 0.523403 0.147245 0.5
101 1 0.499458 0.197873 0.5
103 1 0.547317 0.199664 0.5
64 1 0.574058 0.149114 0.5
105 1 0.597044 0.198182 0.5
66 1 0.625617 0.151118 0.5
68 1 0.674482 0.151584 0.5
107 1 0.649902 0.2001 0.5
70 1 0.724261 0.148487 0.5
109 1 0.699011 0.200105 0.5
72 1 0.772908 0.147635 0.5
111 1 0.74837 0.199316 0.5
113 1 0.799246 0.199712 0.5
74 1 0.823477 0.150539 0.5
115 1 0.8479 0.202352 0.5
76 1 0.875078 0.148294 0.5
78 1 0.924872 0.152008 0.5
117 1 0.896657 0.199728 0.5
80 1 0.974337 0.149051 0.5
119 1 0.950108 0.197906 0.5
82 1 0.0244162 0.24878 0.5
84 1 0.0741055 0.247834 0.5
86 1 0.123714 0.250715 0.5
88 1 0.174262 0.249291 0.5
90 1 0.222725 0.252938 0.5
92 1 0.274047 0.248159 0.5
94 1 0.327091 0.247047 0.5
96 1 0.377343 0.245939 0.5
98 1 0.425008 0.248925 0.5
100 1 0.474825 0.246193 0.5
102 1 0.525677 0.248788 0.5
104 1 0.575374 0.248446 0.5
106 1 0.621834 0.248799 0.5
108 1 0.672471 0.249943 0.5
110 1 0.723469 0.249558 0.5
112 1 0.774667 0.251617 0.5
114 1 0.823166 0.251155 0.5
116 1 0.873298 0.252328 0.5
118 1 0.923068 0.244416 0.5
120 1 0.975195 0.24754 0.5
121 1 0.997455 0.299467 0.5
122 1 0.0224821 0.354326 0.5
123 1 0.0478712 0.298616 0.5
124 1 0.073387 0.348186 0.5
125 1 0.0996142 0.299397 0.5
126 1 0.126669 0.348087 0.5
127 1 0.149288 0.2996 0.5
128 1 0.175315 0.351424 0.5
129 1 0.197868 0.29783 0.5
130 1 0.223369 0.351039 0.5
131 1 0.250575 0.297392 0.5
132 1 0.272311 0.349148 0.5
133 1 0.298618 0.297787 0.5
134 1 0.321882 0.345506 0.5
135 1 0.348884 0.299941 0.5
136 1 0.373151 0.351537 0.5
137 1 0.39881 0.29697 0.5
138 1 0.42216 0.347016 0.5
139 1 0.448437 0.297959 0.5
140 1 0.47471 0.348884 0.5
141 1 0.499312 0.296236 0.5
142 1 0.525022 0.347734 0.5
143 1 0.549547 0.297633 0.5
144 1 0.573581 0.347383 0.5
145 1 0.599355 0.300191 0.5
146 1 0.625606 0.34834 0.5
147 1 0.64885 0.299967 0.5
148 1 0.674853 0.350226 0.5
149 1 0.69706 0.300289 0.5
150 1 0.722202 0.350363 0.5
151 1 0.74571 0.299289 0.5
152 1 0.772359 0.351582 0.5
153 1 0.79756 0.302128 0.5
154 1 0.821503 0.350273 0.5
155 1 0.846836 0.300859 0.5
156 1 0.872645 0.34792 0.5
157 1 0.901324 0.294923 0.5
158 1 0.921083 0.348172 0.5
159 1 0.948777 0.295965 0.5
160 1 0.973308 0.351125 0.5
161 1 0.995786 0.403252 0.5
163 1 0.04819 0.398666 0.5
165 1 0.0981966 0.396012 0.5
167 1 0.148292 0.400263 0.5
169 1 0.198014 0.399856 0.5
171 1 0.250718 0.400938 0.5
173 1 0.30033 0.394868 0.5
175 1 0.350538 0.399188 0.5
177 1 0.400266 0.397398 0.5
179 1 0.448377 0.397757 0.5
181 1 0.498384 0.397694 0.5
183 1 0.547326 0.396836 0.5
185 1 0.598338 0.399501 0.5
187 1 0.6516 0.400593 0.5
189 1 0.699737 0.401506 0.5
191 1 0.74831 0.397856 0.5
193 1 0.799423 0.40031 0.5
195 1 0.849187 0.397566 0.5
197 1 0.897283 0.400608 0.5
199 1 0.946907 0.398267 0.5
162 1 0.0219872 0.448935 0.5
164 1 0.0729767 0.447473 0.5
166 1 0.124639 0.448065 0.5
168 1 0.175577 0.449132 0.5
170 1 0.225896 0.447064 0.5
172 1 0.275352 0.448108 0.5
174 1 0.32317 0.444217 0.5
176 1 0.379018 0.449563 0.5
178 1 0.428261 0.449109 0.5
180 1 0.477697 0.449587 0.5
182 1 0.526502 0.444757 0.5
184 1 0.575971 0.447296 0.5
186 1 0.624867 0.447583 0.5
188 1 0.673928 0.449347 0.5
190 1 0.725626 0.447944 0.5
192 1 0.773199 0.447364 0.5
194 1 0.822533 0.449307 0.5
196 1 0.870754 0.448217 0.5
198 1 0.921978 0.449531 0.5
200 1 0.970265 0.448763 0.5
201 1 0.995373 0.497813 0.5
202 1 0.0236602 0.548796 0.5
203 1 0.0470276 0.496777 0.5
204 1 0.071911 0.54909 0.5
205 1 0.097636 0.499508 0.5
206 1 0.120976 0.547972 0.5
207 1 0.149348 0.497125 0.5
208 1 0.173479 0.546596 0.5
209 1 0.200952 0.498726 0.5
210 1 0.224607 0.548333 0.5
211 1 0.250076 0.499409 0.5
212 1 0.276689 0.54721 0.5
213 1 0.30056 0.495374 0.5
214 1 0.325272 0.54551 0.5
215 1 0.350191 0.497315 0.5
216 1 0.378044 0.547964 0.5
217 1 0.402782 0.498094 0.5
218 1 0.427192 0.549371 0.5
219 1 0.451814 0.501731 0.5
220 1 0.478283 0.553108 0.5
221 1 0.503807 0.495764 0.5
222 1 0.523854 0.550187 0.5
223 1 0.550863 0.498647 0.5
224 1 0.574873 0.546223 0.5
225 1 0.59841 0.498153 0.5
226 1 0.623919 0.547263 0.5
227 1 0.648517 0.49835 0.5
228 1 0.673624 0.545499 0.5
229 1 0.699062 0.49752 0.5
230 1 0.722104 0.545367 0.5
231 1 0.749135 0.497552 0.5
232 1 0.773998 0.548292 0.5
233 1 0.798576 0.496537 0.5
234 1 0.822143 0.547125 0.5
235 1 0.851514 0.500515 0.5
236 1 0.873282 0.5524 0.5
237 1 0.899145 0.501665 0.5
238 1 0.923662 0.550164 0.5
239 1 0.947988 0.499005 0.5
240 1 0.974543 0.54683 0.5
241 1 0.999606 0.599547 0.5
243 1 0.0458036 0.59911 0.5
245 1 0.0948675 0.601683 0.5
247 1 0.145232 0.597291 0.5
249 1 0.200202 0.597438 0.5
251 1 0.248605 0.596094 0.5
253 1 0.299543 0.599041 0.5
255 1 0.35126 0.594787 0.5
257 1 0.399911 0.596769 0.5
259 1 0.448069 0.599737 0.5
261 1 0.503151 0.601161 0.5
263 1 0.554749 0.596003 0.5
265 1 0.603824 0.594296 0.5
267 1 0.653064 0.595716 0.5
269 1 0.702428 0.5985 0.5
271 1 0.751249 0.59693 0.5
273 1 0.8001 0.596408 0.5
275 1 0.848105 0.596586 0.5
277 1 0.899808 0.59869 0.5
279 1 0.950094 0.598275 0.5
242 1 0.0217479 0.650369 0.5
281 1 0.99842 0.699674 0.5
283 1 0.0483736 0.698549 0.5
244 1 0.0724438 0.650468 0.5
285 1 0.0982816 0.695974 0.5
246 1 0.121769 0.647751 0.5
248 1 0.173824 0.646978 0.5
287 1 0.14777 0.696448 0.5
250 1 0.220944 0.645244 0.5
289 1 0.198399 0.694614 0.5
252 1 0.269921 0.64572 0.5
291 1 0.24807 0.694929 0.5
293 1 0.302519 0.693101 0.5
254 1 0.329018 0.64491 0.5
295 1 0.353679 0.69529 0.5
256 1 0.377052 0.646356 0.5
258 1 0.429588 0.650289 0.5
297 1 0.40241 0.695481 0.5
260 1 0.476781 0.648881 0.5
299 1 0.453629 0.696293 0.5
262 1 0.528676 0.645848 0.5
301 1 0.500415 0.696029 0.5
303 1 0.552125 0.695078 0.5
264 1 0.578207 0.644944 0.5
305 1 0.601285 0.69751 0.5
266 1 0.626158 0.646082 0.5
268 1 0.677353 0.648334 0.5
307 1 0.652179 0.692803 0.5
270 1 0.727412 0.648886 0.5
309 1 0.701119 0.696537 0.5
272 1 0.775067 0.644507 0.5
311 1 0.750834 0.696986 0.5
313 1 0.799616 0.693042 0.5
274 1 0.822726 0.643922 0.5
315 1 0.848589 0.695143 0.5
276 1 0.873138 0.644969 0.5
278 1 0.922772 0.647153 0.5
317 1 0.899245 0.696446 0.5
280 1 0.972444 0.647379 0.5
319 1 0.947307 0.694267 0.5
282 1 0.0255203 0.747423 0.5
284 1 0.0765846 0.742784 0.5
286 1 0.125115 0.743647 0.5
288 1 0.17373 0.744598 0.5
290 1 0.223866 0.743683 0.5
292 1 0.27299 0.743084 0.5
294 1 0.322922 0.743416 0.5
296 1 0.377431 0.745857 0.5
298 1 0.425936 0.744327 0.5
300 1 0.479537 0.747222 0.5
302 1 0.526787 0.74618 0.5
304 1 0.573787 0.746708 0.5
306 1 0.624785 0.745491 0.5
308 1 0.672974 0.743442 0.5
310 1 0.725322 0.742781 0.5
312 1 0.775737 0.743938 0.5
314 1 0.82269 0.743672 0.5
316 1 0.872369 0.744328 0.5
318 1 0.924019 0.748792 0.5
320 1 0.973185 0.746542 0.5
321 1 1.00096 0.796091 0.5
322 1 0.0271296 0.846444 0.5
323 1 0.0496683 0.795509 0.5
324 1 0.0764557 0.840387 0.5
325 1 0.100695 0.793473 0.5
326 1 0.12649 0.842782 0.5
327 1 0.153025 0.792729 0.5
328 1 0.174648 0.843815 0.5
329 1 0.201602 0.794216 0.5
330 1 0.224219 0.844744 0.5
331 1 0.249036 0.794957 0.5
332 1 0.274516 0.840011 0.5
333 1 0.298868 0.792776 0.5
334 1 0.325519 0.840405 0.5
335 1 0.350442 0.793525 0.5
336 1 0.373968 0.842558 0.5
337 1 0.401677 0.795204 0.5
338 1 0.427869 0.841572 0.5
339 1 0.453407 0.793167 0.5
340 1 0.477347 0.84192 0.5
341 1 0.504075 0.793761 0.5
342 1 0.525173 0.845614 0.5
343 1 0.551605 0.79794 0.5
344 1 0.575597 0.844617 0.5
345 1 0.598683 0.794396 0.5
346 1 0.625361 0.842137 0.5
347 1 0.648864 0.793563 0.5
348 1 0.674564 0.839492 0.5
349 1 0.699741 0.788912 0.5
350 1 0.72327 0.838139 0.5
351 1 0.751116 0.793274 0.5
352 1 0.772554 0.840161 0.5
353 1 0.80228 0.792777 0.5
354 1 0.821969 0.843002 0.5
355 1 0.850121 0.794075 0.5
356 1 0.874258 0.844922 0.5
357 1 0.897293 0.79481 0.5
358 1 0.924405 0.842893 0.5
359 1 0.950318 0.796248 0.5
360 1 0.976471 0.843728 0.5
361 1 0.00266713 0.893916 0.5
363 1 0.0527688 0.892618 0.5
365 1 0.10014 0.895499 0.5
367 1 0.149616 0.892438 0.5
369 1 0.203878 0.893279 0.5
371 1 0.254403 0.891203 0.5
373 1 0.300719 0.888191 0.5
375 1 0.351336 0.891276 0.5
377 1 0.404695 0.891403 0.5
379 1 0.453466 0.893603 0.5
381 1 0.501555 0.891114 0.5
383 1 0.550699 0.892991 0.5
385 1 0.601927 0.892775 0.5
387 1 0.649849 0.889477 0.5
389 1 0.699965 0.887452 0.5
391 1 0.749227 0.894593 0.5
393 1 0.799573 0.893149 0.5
395 1 0.848794 0.893775 0.5
397 1 0.899018 0.892497 0.5
399 1 0.952427 0.889805 0.5
362 1 0.0246066 0.946369 0.5
401 1 0.00272734 0.996669 0.5
402 1 0.0531048 0.99634 0.5
364 1 0.0736616 0.940946 0.5
403 1 0.103443 0.988363 0.5
366 1 0.124502 0.940533 0.5
368 1 0.174773 0.938846 0.5
404 1 0.152554 0.990806 0.5
370 1 0.228393 0.939359 0.5
405 1 0.20658 0.999151 0.5
372 1 0.278146 0.940766 0.5
406 1 0.255084 0.987608 0.5
407 1 0.304514 0.994019 0.5
374 1 0.326601 0.939984 0.5
408 1 0.353356 0.986334 0.5
376 1 0.378416 0.939023 0.5
378 1 0.425799 0.941821 0.5
409 1 0.402108 0.989772 0.5
380 1 0.476938 0.942969 0.5
410 1 0.451507 0.995462 0.5
382 1 0.527333 0.943284 0.5
411 1 0.502353 0.995072 0.5
412 1 0.554466 0.990034 0.5
384 1 0.578312 0.942829 0.5
413 1 0.60319 0.992147 0.5
386 1 0.627695 0.941718 0.5
388 1 0.675636 0.938006 0.5
414 1 0.655953 0.989237 0.5
390 1 0.722949 0.938282 0.5
415 1 0.702291 0.990894 0.5
392 1 0.776833 0.93897 0.5
416 1 0.74987 0.985306 0.5
417 1 0.79825 0.989691 0.5
394 1 0.824474 0.944029 0.5
418 1 0.850145 0.996071 0.5
396 1 0.874261 0.941882 0.5
398 1 0.922867 0.939886 0.5
419 1 0.899403 0.988463 0.5
400 1 0.975581 0.945851 0.5
420 1 0.948709 0.992383 0.5
ITEM: TIMESTEP
500
ITEM: NUMBER OF ATOMS
420
ITEM: BOX BOUNDS pp ss pp
0.0000000000000000e+00 2.2653923264628304e+01
-1.9618873042551413e-03 1.9627837412502362e+01
-2.8317404080785380e-01 2.8317404080785380e-01
ITEM: ATOMS id type xs ys zs
1 2 0 9.99443e-05 0.5
2 2 0.025 0.0500721 0.5
3 2 0.05 9.99443e-05 0.5
4 2 0.075 0.0500721 0.5
5 2 0.1 9.99443e-05 0.5
6 2 0.125 0.0500721 0.5
7 2 0.15 9.99443e-05 0.5
8 2 0.175 0.0500721 0.5
9 2 0.2 9.99443e-05 0.5
10 2 0.225 0.0500721 0.5
11 2 0.25 9.99443e-05 0.5
12 2 0.275 0.0500721 0.5
13 2 0.3 9.99443e-05 0.5
14 2 0.325 0.0500721 0.5
15 2 0.35 9.99443e-05 0.5
16 2 0.375 0.0500721 0.5
17 2 0.4 9.99443e-05 0.5
18 2 0.425 0.0500721 0.5
19 2 0.45 9.99443e-05 0.5
20 2 0.475 0.0500721 0.5
21 2 0.5 9.99443e-05 0.5
22 2 0.525 0.0500721 0.5
23 2 0.55 9.99443e-05 0.5
24 2 0.575 0.0500721 0.5
25 2 0.6 9.99443e-05 0.5
26 2 0.625 0.0500721 0.5
27 2 0.65 9.99443e-05 0.5
28 2 0.675 0.0500721 0.5
29 2 0.7 9.99443e-05 0.5
30 2 0.725 0.0500721 0.5
31 2 0.75 9.99443e-05 0.5
32 2 0.775 0.0500721 0.5
33 2 0.8 9.99443e-05 0.5
34 2 0.825 0.0500721 0.5
35 2 0.85 9.99443e-05 0.5
36 2 0.875 0.0500721 0.5
37 2 0.9 9.99443e-05 0.5
38 2 0.925 0.0500721 0.5
39 2 0.95 9.99443e-05 0.5
40 2 0.975 0.0500721 0.5
41 2 0 0.100044 0.5
43 2 0.05 0.100044 0.5
45 2 0.1 0.100044 0.5
47 2 0.15 0.100044 0.5
49 2 0.2 0.100044 0.5
51 2 0.25 0.100044 0.5
53 2 0.3 0.100044 0.5
55 2 0.35 0.100044 0.5
57 2 0.4 0.100044 0.5
59 2 0.45 0.100044 0.5
61 2 0.5 0.100044 0.5
63 2 0.55 0.100044 0.5
65 2 0.6 0.100044 0.5
67 2 0.65 0.100044 0.5
69 2 0.7 0.100044 0.5
71 2 0.75 0.100044 0.5
73 2 0.8 0.100044 0.5
75 2 0.85 0.100044 0.5
77 2 0.9 0.100044 0.5
79 2 0.95 0.100044 0.5
42 1 0.0231137 0.147839 0.5
81 1 0.998101 0.202425 0.5
83 1 0.0482975 0.199449 0.5
44 1 0.0722334 0.15066 0.5
85 1 0.099724 0.200126 0.5
46 1 0.126757 0.148539 0.5
48 1 0.175801 0.151426 0.5
87 1 0.149277 0.196878 0.5
50 1 0.225882 0.150118 0.5
89 1 0.200113 0.199586 0.5
52 1 0.273996 0.15297 0.5
91 1 0.248892 0.201495 0.5
93 1 0.300933 0.201829 0.5
54 1 0.322865 0.150387 0.5
95 1 0.34887 0.20073 0.5
56 1 0.370513 0.149844 0.5
58 1 0.42478 0.146841 0.5
97 1 0.400516 0.199961 0.5
60 1 0.474957 0.148979 0.5
99 1 0.449228 0.199876 0.5
62 1 0.522584 0.150711 0.5
101 1 0.498846 0.200097 0.5
103 1 0.549515 0.197737 0.5
64 1 0.574348 0.148717 0.5
105 1 0.600167 0.199231 0.5
66 1 0.624569 0.148977 0.5
68 1 0.675178 0.151147 0.5
107 1 0.64992 0.196542 0.5
70 1 0.725128 0.151843 0.5
109 1 0.701422 0.1989 0.5
72 1 0.775755 0.147924 0.5
111 1 0.752729 0.198054 0.5
113 1 0.802151 0.19382 0.5
74 1 0.828782 0.148294 0.5
115 1 0.851229 0.199063 0.5
76 1 0.8778 0.149951 0.5
78 1 0.927436 0.149979 0.5
117 1 0.898722 0.198194 0.5
80 1 0.975023 0.150117 0.5
119 1 0.948428 0.200958 0.5
82 1 0.0228768 0.248843 0.5
84 1 0.0718208 0.248817 0.5
86 1 0.123697 0.248527 0.5
88 1 0.175982 0.249412 0.5
90 1 0.224252 0.250761 0.5
92 1 0.273867 0.251336 0.5
94 1 0.325225 0.249238 0.5
96 1 0.375438 0.249659 0.5
98 1 0.427481 0.25373 0.5
100 1 0.477348 0.251974 0.5
102 1 0.524287 0.249736 0.5
104 1 0.573649 0.2463 0.5
106 1 0.625022 0.249904 0.5
108 1 0.675589 0.244377 0.5
110 1 0.727592 0.247656 0.5
112 1 0.773931 0.246697 0.5
114 1 0.821477 0.244362 0.5
116 1 0.87465 0.252543 0.5
118 1 0.926017 0.248993 0.5
120 1 0.973566 0.253507 0.5
121 1 0.99871 0.30117 0.5
122 1 0.0241221 0.348887 0.5
123 1 0.0471257 0.299141 0.5
124 1 0.0725734 0.349407 0.5
125 1 0.0976639 0.297875 0.5
126 1 0.123369 0.347059 0.5
127 1 0.149484 0.298825 0.5
128 1 0.17281 0.34999 0.5
129 1 0.198108 0.30066 0.5
130 1 0.22359 0.348507 0.5
131 1 0.24602 0.300193 0.5
132 1 0.272253 0.349876 0.5
133 1 0.296221 0.302207 0.5
134 1 0.320469 0.349947 0.5
135 1 0.347088 0.302917 0.5
136 1 0.372094 0.351968 0.5
137 1 0.399207 0.299559 0.5
138 1 0.424135 0.349566 0.5
139 1 0.450899 0.300615 0.5
140 1 0.473605 0.350372 0.5
141 1 0.4994 0.299943 0.5
142 1 0.523474 0.350708 0.5
143 1 0.548412 0.300835 0.5
144 1 0.574907 0.348116 0.5
145 1 0.596805 0.298954 0.5
146 1 0.623746 0.348169 0.5
147 1 0.64747 0.298241 0.5
148 1 0.675487 0.346759 0.5
149 1 0.700581 0.296227 0.5
150 1 0.723385 0.343792 0.5
151 1 0.751292 0.295761 0.5
152 1 0.774084 0.346334 0.5
153 1 0.799836 0.297106 0.5
154 1 0.823254 0.348286 0.5
155 1 0.847181 0.301457 0.5
156 1 0.873944 0.347389 0.5
157 1 0.899501 0.296885 0.5
158 1 0.924418 0.348541 0.5
159 1 0.948387 0.300735 0.5
160 1 0.973731 0.349736 0.5
161 1 0.000576207 0.399031 0.5
163 1 0.0494983 0.397935 0.5
165 1 0.0992664 0.395182 0.5
167 1 0.14756 0.398109 0.5
169 1 0.198456 0.395459 0.5
171 1 0.249755 0.39792 0.5
173 1 0.297375 0.40053 0.5
175 1 0.34642 0.399063 0.5
177 1 0.397036 0.400335 0.5
179 1 0.445987 0.39884 0.5
181 1 0.497709 0.398936 0.5
183 1 0.550566 0.396624 0.5
185 1 0.598252 0.398035 0.5
187 1 0.6492 0.396305 0.5
189 1 0.699621 0.396247 0.5
191 1 0.748783 0.393748 0.5
193 1 0.798741 0.39641 0.5
195 1 0.850746 0.397688 0.5
197 1 0.899584 0.39745 0.5
199 1 0.950941 0.398403 0.5
162 1 0.0250907 0.450354 0.5
164 1 0.0745569 0.450835 0.5
166 1 0.122785 0.448125 0.5
168 1 0.173153 0.444243 0.5
170 1 0.223145 0.449067 0.5
172 1 0.274879 0.447446 0.5
174 1 0.322924 0.447353 0.5
176 1 0.370983 0.449868 0.5
178 1 0.424981 0.448305 0.5
180 1 0.473925 0.446675 0.5
182 1 0.526167 0.445147 0.5
184 1 0.575789 0.445174 0.5
186 1 0.624801 0.445644 0.5
188 1 0.674751 0.441579 0.5
190 1 0.723879 0.445103 0.5
192 1 0.77275 0.446267 0.5
194 1 0.823844 0.447013 0.5
196 1 0.873945 0.447452 0.5
198 1 0.923194 0.446266 0.5
200 1 0.970704 0.448745 0.5
201 1 0.996829 0.496641 0.5
202 1 0.0215228 0.54621 0.5
203 1 0.0492871 0.498281 0.5
204 1 0.0738937 0.546796 0.5
205 1 0.0992789 0.500971 0.5
206 1 0.126752 0.547984 0.5
207 1 0.14781 0.499503 0.5
208 1 0.177369 0.547077 0.5
209 1 0.196417 0.494939 0.5
210 1 0.226132 0.545691 0.5
211 1 0.24775 0.496075 0.5
212 1 0.275781 0.54733 0.5
213 1 0.29664 0.495865 0.5
214 1 0.322205 0.547935 0.5
215 1 0.342507 0.49802 0.5
216 1 0.372277 0.543255 0.5
217 1 0.398306 0.494612 0.5
218 1 0.424314 0.542616 0.5
219 1 0.450057 0.496148 0.5
220 1 0.473537 0.544458 0.5
221 1 0.498808 0.49495 0.5
222 1 0.521516 0.546623 0.5
223 1 0.546847 0.496335 0.5
224 1 0.572701 0.54526 0.5
225 1 0.59994 0.497621 0.5
226 1 0.622926 0.545141 0.5
227 1 0.651138 0.496004 0.5
228 1 0.675701 0.545529 0.5
229 1 0.699837 0.497176 0.5
230 1 0.724582 0.545082 0.5
231 1 0.748519 0.497061 0.5
232 1 0.772328 0.547209 0.5
233 1 0.79826 0.494614 0.5
234 1 0.824135 0.547099 0.5
235 1 0.848152 0.496925 0.5
236 1 0.874407 0.545958 0.5
237 1 0.897473 0.495012 0.5
238 1 0.922758 0.544307 0.5
239 1 0.947688 0.497471 0.5
240 1 0.972675 0.544176 0.5
241 1 0.998968 0.594413 0.5
243 1 0.0513562 0.595133 0.5
245 1 0.105278 0.596154 0.5
247 1 0.15376 0.595973 0.5
249 1 0.201984 0.59563 0.5
251 1 0.249753 0.596196 0.5
253 1 0.298544 0.59987 0.5
255 1 0.348506 0.595623 0.5
257 1 0.399424 0.59053 0.5
259 1 0.450604 0.591843 0.5
261 1 0.498336 0.592962 0.5
263 1 0.547966 0.595985 0.5
265 1 0.600659 0.594933 0.5
267 1 0.652396 0.593163 0.5
269 1 0.701521 0.59667 0.5
271 1 0.748322 0.597992 0.5
273 1 0.799655 0.596445 0.5
275 1 0.850503 0.598957 0.5
277 1 0.899138 0.595149 0.5
279 1 0.948258 0.593512 0.5
242 1 0.0259179 0.640856 0.5
281 1 0.00136419 0.692207 0.5
283 1 0.0507216 0.697067 0.5
244 1 0.0763881 0.644739 0.5
285 1 0.102835 0.694443 0.5
246 1 0.130499 0.645848 0.5
248 1 0.178231 0.646578 0.5
287 1 0.150889 0.697218 0.5
250 1 0.226803 0.645848 0.5
289 1 0.199768 0.695051 0.5
252 1 0.275233 0.646418 0.5
291 1 0.249921 0.697973 0.5
293 1 0.300116 0.695627 0.5
254 1 0.32808 0.649941 0.5
295 1 0.350905 0.695777 0.5
256 1 0.374404 0.643458 0.5
258 1 0.424568 0.643979 0.5
297 1 0.401859 0.693928 0.5
260 1 0.471829 0.644711 0.5
299 1 0.450439 0.693555 0.5
262 1 0.522278 0.642321 0.5
301 1 0.498053 0.692708 0.5
303 1 0.547137 0.692347 0.5
264 1 0.572944 0.646168 0.5
305 1 0.598075 0.694755 0.5
266 1 0.625008 0.648151 0.5
268 1 0.674576 0.648745 0.5
307 1 0.647735 0.697299 0.5
270 1 0.725338 0.647177 0.5
309 1 0.701026 0.696218 0.5
272 1 0.776508 0.646178 0.5
311 1 0.749907 0.698193 0.5
313 1 0.799709 0.694225 0.5
274 1 0.824392 0.645642 0.5
315 1 0.849667 0.695532 0.5
276 1 0.875603 0.646366 0.5
278 1 0.924969 0.645163 0.5
317 1 0.900872 0.694985 0.5
280 1 0.974435 0.643471 0.5
319 1 0.951136 0.694046 0.5
282 1 0.0256964 0.744058 0.5
284 1 0.0743828 0.746459 0.5
286 1 0.12424 0.746662 0.5
288 1 0.174928 0.746339 0.5
290 1 0.226419 0.74612 0.5